;
;	User spoel (236)
;	Wed Nov  3 17:12:44 1993
;	Input file
;
title               =  MD_term_a
cpp                 =  /lib/cpp
define		    =  -DPOSRES
constraints         =  all-bonds
integrator          =  md
tinit               =  1.0
dt                  =  0.002	; ps !
nsteps              =  500	; total 1 ps ;1ps-2ps;.
nstcomm             =  1
nstxout             =  200
nstxtcout           =  0
xtc_precision       =  1000
nstvout             =  200
nstfout             =  0
nstlog              =  500
nstenergy           =  200
nstlist             =  10
ns_type             =  grid
coulombtype         =  PME
rlist               =  0.9
rcoulomb            =  0.9
rvdw                =  0.9
fourierspacing      =  0.12
optimize_fft	    =  yes
pme_order           =  4
ewald_rtol          =  1e-5
; Berendsen temperature coupling is on in four groups
Tcoupl              =  berendsen
tc-grps	            =  Protein SOL
tau_t               =  0.1 0.1
ref_t               =  10 10
; Energy monitoring
energygrps          =  Protein SOL
; Isotropic pressure coupling is now on
Pcoupl              =  berendsen
Pcoupltype          =  isotropic
tau_p               =  2
compressibility     =  4.5e-5
ref_p               =  1.0
; Generate velocites is off at 50 K.
gen_vel             =  yes 
gen_temp            =  10.0
gen_seed            =  173529
