;
;	User spoel (236)
;	Wed Nov  3 17:12:44 1993
;	Input file
;
title               =  MD_term_f
cpp                 =  /lib/cpp
define		    =  -DPOSRES
constraints         =  all-bonds
integrator          =  md
tinit               =  25.0
dt                  =  0.002	; ps !
nsteps              =  2500	; total 5 ps.;25ps-30ps;
nstcomm             =  1
nstxout             =  200
nstvout             =  200
nstfout             =  0
nstlog              =  500
nstenergy           =  200
nstlist             =  10
ns_type             =  grid
coulombtype         =  PME
rlist               =  0.9
rcoulomb            =  0.9
rvdw                =  0.9
fourierspacing      =  0.12
optimize_fft	    =  yes
pme_order           =  4
ewald_rtol          =  1e-5
; Berendsen temperature coupling is on in four groups
Tcoupl              =  berendsen
tc-grps	            =  Protein SOL
tau_t               =  0.1 0.1
ref_t               =  250 250
; Energy monitoring
energygrps          =  Protein SOL
; Isotropic pressure coupling is now on
Pcoupl              =  berendsen
Pcoupltype          =  isotropic
tau_p               =  2
compressibility     =  4.5e-5
ref_p               =  1.0
; Generate velocites is off at 250 K.
gen_vel             =  no 
gen_temp            =  250.0
gen_seed            =  173529





















